<?xml version="1.0"?>

<!-- generated on Mon 13 Feb 2012 09:39:59 PM CET by SUMO gui Version 0.13.1
<?xml version="1.0" encoding="iso-8859-1"?>

<configuration xmlns:xsi="http://www.w3.org/2001/XMLSchema-instance" xsi:noNamespaceSchemaLocation="http://sumo.sf.net/xsd/sumo-gui.exeConfiguration.xsd">

    <input>
        <net-file value="testbed.net.xml"/>
        <route-files value="testbed.rou.xml"/>
        <additional-files value="testbed.det.xml"/>
    </input>

    <time>
        <begin value="0"/>
        <end value="5000"/>
    </time>

</configuration>
-->

<detector>
   <interval begin="0.00" end="30.00" id="0" nVehContrib="1" flow="120.00" occupancy="3.78" speed="6.62" length="7.50" nVehEntered="1"/>
   <interval begin="0.00" end="30.00" id="1" nVehContrib="1" flow="120.00" occupancy="4.87" speed="6.93" length="7.50" nVehEntered="1"/>
   <interval begin="30.00" end="60.00" id="0" nVehContrib="1" flow="120.00" occupancy="9.04" speed="5.29" length="7.50" nVehEntered="1"/>
   <interval begin="30.00" end="60.00" id="1" nVehContrib="2" flow="240.00" occupancy="5.37" speed="7.54" length="7.50" nVehEntered="2"/>
   <interval begin="60.00" end="90.00" id="0" nVehContrib="2" flow="240.00" occupancy="3.87" speed="6.19" length="7.50" nVehEntered="2"/>
   <interval begin="60.00" end="90.00" id="1" nVehContrib="1" flow="120.00" occupancy="5.56" speed="6.33" length="7.50" nVehEntered="1"/>
   <interval begin="90.00" end="120.00" id="0" nVehContrib="2" flow="240.00" occupancy="8.24" speed="6.07" length="7.50" nVehEntered="2"/>
   <interval begin="90.00" end="120.00" id="1" nVehContrib="2" flow="240.00" occupancy="5.32" speed="7.21" length="7.50" nVehEntered="2"/>
   <interval begin="120.00" end="150.00" id="0" nVehContrib="1" flow="120.00" occupancy="3.82" speed="6.54" length="7.50" nVehEntered="1"/>
   <interval begin="120.00" end="150.00" id="1" nVehContrib="1" flow="120.00" occupancy="5.36" speed="7.70" length="7.50" nVehEntered="1"/>
   <interval begin="150.00" end="180.00" id="0" nVehContrib="2" flow="240.00" occupancy="9.47" speed="5.39" length="7.50" nVehEntered="2"/>
   <interval begin="150.00" end="180.00" id="1" nVehContrib="2" flow="240.00" occupancy="4.18" speed="7.94" length="7.50" nVehEntered="2"/>
   <interval begin="180.00" end="210.00" id="0" nVehContrib="1" flow="120.00" occupancy="3.19" speed="7.82" length="7.50" nVehEntered="1"/>
   <interval begin="180.00" end="210.00" id="1" nVehContrib="1" flow="120.00" occupancy="3.82" speed="7.56" length="7.50" nVehEntered="1"/>
   <interval begin="210.00" end="240.00" id="0" nVehContrib="2" flow="240.00" occupancy="7.51" speed="6.73" length="7.50" nVehEntered="2"/>
   <interval begin="210.00" end="240.00" id="1" nVehContrib="2" flow="240.00" occupancy="6.37" speed="7.26" length="7.50" nVehEntered="2"/>
   <interval begin="240.00" end="270.00" id="0" nVehContrib="1" flow="120.00" occupancy="4.46" speed="5.61" length="7.50" nVehEntered="1"/>
   <interval begin="240.00" end="270.00" id="1" nVehContrib="1" flow="120.00" occupancy="6.42" speed="7.25" length="7.50" nVehEntered="1"/>
   <interval begin="270.00" end="300.00" id="0" nVehContrib="1" flow="120.00" occupancy="8.62" speed="5.19" length="7.50" nVehEntered="1"/>
   <interval begin="270.00" end="300.00" id="1" nVehContrib="2" flow="240.00" occupancy="3.58" speed="7.63" length="7.50" nVehEntered="2"/>
   <interval begin="300.00" end="330.00" id="0" nVehContrib="2" flow="240.00" occupancy="3.62" speed="6.82" length="7.50" nVehEntered="2"/>
   <interval begin="300.00" end="330.00" id="1" nVehContrib="1" flow="120.00" occupancy="4.97" speed="7.25" length="7.50" nVehEntered="1"/>
   <interval begin="330.00" end="360.00" id="0" nVehContrib="1" flow="120.00" occupancy="9.01" speed="4.93" length="7.50" nVehEntered="1"/>
   <interval begin="330.00" end="360.00" id="1" nVehContrib="2" flow="240.00" occupancy="5.82" speed="6.82" length="7.50" nVehEntered="2"/>
   <interval begin="360.00" end="390.00" id="0" nVehContrib="2" flow="240.00" occupancy="4.18" speed="6.16" length="7.50" nVehEntered="2"/>
   <interval begin="360.00" end="390.00" id="1" nVehContrib="1" flow="120.00" occupancy="5.63" speed="6.34" length="7.50" nVehEntered="1"/>
   <interval begin="390.00" end="420.00" id="0" nVehContrib="1" flow="120.00" occupancy="7.10" speed="8.69" length="7.50" nVehEntered="1"/>
   <interval begin="390.00" end="420.00" id="1" nVehContrib="2" flow="240.00" occupancy="5.21" speed="7.26" length="7.50" nVehEntered="2"/>
   <interval begin="420.00" end="450.00" id="0" nVehContrib="2" flow="240.00" occupancy="4.51" speed="5.73" length="7.50" nVehEntered="2"/>
   <interval begin="420.00" end="450.00" id="1" nVehContrib="1" flow="120.00" occupancy="4.80" speed="6.81" length="7.50" nVehEntered="1"/>
   <interval begin="450.00" end="480.00" id="0" nVehContrib="2" flow="240.00" occupancy="8.64" speed="5.81" length="7.50" nVehEntered="2"/>
   <interval begin="450.00" end="480.00" id="1" nVehContrib="2" flow="240.00" occupancy="6.19" speed="6.84" length="7.50" nVehEntered="2"/>
   <interval begin="480.00" end="510.00" id="0" nVehContrib="1" flow="120.00" occupancy="3.06" speed="8.18" length="7.50" nVehEntered="1"/>
   <interval begin="480.00" end="510.00" id="1" nVehContrib="1" flow="120.00" occupancy="4.46" speed="6.88" length="7.50" nVehEntered="1"/>
   <interval begin="510.00" end="540.00" id="0" nVehContrib="2" flow="240.00" occupancy="9.47" speed="5.30" length="7.50" nVehEntered="2"/>
   <interval begin="510.00" end="540.00" id="1" nVehContrib="2" flow="240.00" occupancy="6.42" speed="6.91" length="7.50" nVehEntered="2"/>
   <interval begin="540.00" end="570.00" id="0" nVehContrib="1" flow="120.00" occupancy="3.25" speed="7.69" length="7.50" nVehEntered="1"/>
   <interval begin="540.00" end="570.00" id="1" nVehContrib="1" flow="120.00" occupancy="4.02" speed="7.68" length="7.50" nVehEntered="1"/>
   <interval begin="570.00" end="600.00" id="0" nVehContrib="1" flow="120.00" occupancy="10.35" speed="4.68" length="7.50" nVehEntered="1"/>
   <interval begin="570.00" end="600.00" id="1" nVehContrib="2" flow="240.00" occupancy="6.52" speed="6.87" length="7.50" nVehEntered="2"/>
   <interval begin="600.00" end="630.00" id="0" nVehContrib="2" flow="240.00" occupancy="4.87" speed="5.09" length="7.50" nVehEntered="2"/>
   <interval begin="600.00" end="630.00" id="1" nVehContrib="1" flow="120.00" occupancy="4.71" speed="7.19" length="7.50" nVehEntered="1"/>
   <interval begin="630.00" end="660.00" id="0" nVehContrib="2" flow="240.00" occupancy="8.23" speed="6.15" length="7.50" nVehEntered="2"/>
   <interval begin="630.00" end="660.00" id="1" nVehContrib="2" flow="240.00" occupancy="5.52" speed="7.40" length="7.50" nVehEntered="2"/>
   <interval begin="660.00" end="690.00" id="0" nVehContrib="1" flow="120.00" occupancy="4.01" speed="6.24" length="7.50" nVehEntered="1"/>
   <interval begin="660.00" end="690.00" id="1" nVehContrib="1" flow="120.00" occupancy="5.10" speed="7.62" length="7.50" nVehEntered="1"/>
   <interval begin="690.00" end="720.00" id="0" nVehContrib="2" flow="240.00" occupancy="7.05" speed="7.10" length="7.50" nVehEntered="2"/>
   <interval begin="690.00" end="720.00" id="1" nVehContrib="2" flow="240.00" occupancy="5.08" speed="7.25" length="7.50" nVehEntered="2"/>
   <interval begin="720.00" end="750.00" id="0" nVehContrib="1" flow="120.00" occupancy="3.78" speed="6.61" length="7.50" nVehEntered="1"/>
   <interval begin="720.00" end="750.00" id="1" nVehContrib="1" flow="120.00" occupancy="4.46" speed="7.57" length="7.50" nVehEntered="1"/>
   <interval begin="750.00" end="780.00" id="0" nVehContrib="1" flow="120.00" occupancy="6.77" speed="6.51" length="7.50" nVehEntered="1"/>
   <interval begin="750.00" end="780.00" id="1" nVehContrib="2" flow="240.00" occupancy="5.48" speed="7.53" length="7.50" nVehEntered="2"/>
   <interval begin="780.00" end="810.00" id="0" nVehContrib="2" flow="240.00" occupancy="4.37" speed="6.91" length="7.50" nVehEntered="2"/>
   <interval begin="780.00" end="810.00" id="1" nVehContrib="1" flow="120.00" occupancy="4.27" speed="6.98" length="7.50" nVehEntered="1"/>
   <interval begin="810.00" end="840.00" id="0" nVehContrib="1" flow="120.00" occupancy="7.82" speed="5.13" length="7.50" nVehEntered="1"/>
   <interval begin="810.00" end="840.00" id="1" nVehContrib="2" flow="240.00" occupancy="6.35" speed="7.11" length="7.50" nVehEntered="2"/>
   <interval begin="840.00" end="870.00" id="0" nVehContrib="2" flow="240.00" occupancy="5.39" speed="6.10" length="7.50" nVehEntered="2"/>
   <interval begin="840.00" end="870.00" id="1" nVehContrib="1" flow="120.00" occupancy="3.59" speed="6.96" length="7.50" nVehEntered="1"/>
   <interval begin="870.00" end="900.00" id="0" nVehContrib="2" flow="240.00" occupancy="8.85" speed="5.66" length="7.50" nVehEntered="2"/>
   <interval begin="870.00" end="900.00" id="1" nVehContrib="2" flow="240.00" occupancy="6.48" speed="7.74" length="7.50" nVehEntered="2"/>
   <interval begin="900.00" end="930.00" id="0" nVehContrib="1" flow="120.00" occupancy="4.00" speed="6.26" length="7.50" nVehEntered="1"/>
   <interval begin="900.00" end="930.00" id="1" nVehContrib="1" flow="120.00" occupancy="4.44" speed="8.05" length="7.50" nVehEntered="1"/>
   <interval begin="930.00" end="960.00" id="0" nVehContrib="2" flow="240.00" occupancy="7.74" speed="6.62" length="7.50" nVehEntered="2"/>
   <interval begin="930.00" end="960.00" id="1" nVehContrib="2" flow="240.00" occupancy="5.51" speed="7.32" length="7.50" nVehEntered="2"/>
   <interval begin="960.00" end="990.00" id="0" nVehContrib="1" flow="120.00" occupancy="4.20" speed="5.95" length="7.50" nVehEntered="1"/>
   <interval begin="960.00" end="990.00" id="1" nVehContrib="1" flow="120.00" occupancy="6.21" speed="7.51" length="7.50" nVehEntered="1"/>
   <interval begin="990.00" end="1020.00" id="0" nVehContrib="2" flow="240.00" occupancy="7.33" speed="7.02" length="7.50" nVehEntered="2"/>
   <interval begin="990.00" end="1020.00" id="1" nVehContrib="2" flow="240.00" occupancy="3.45" speed="7.92" length="7.50" nVehEntered="2"/>
   <interval begin="1020.00" end="1050.00" id="0" nVehContrib="1" flow="120.00" occupancy="3.77" speed="6.63" length="7.50" nVehEntered="1"/>
   <interval begin="1020.00" end="1050.00" id="1" nVehContrib="1" flow="120.00" occupancy="4.30" speed="8.23" length="7.50" nVehEntered="1"/>
   <interval begin="1050.00" end="1080.00" id="0" nVehContrib="2" flow="240.00" occupancy="7.64" speed="6.60" length="7.50" nVehEntered="2"/>
   <interval begin="1050.00" end="1080.00" id="1" nVehContrib="2" flow="240.00" occupancy="5.75" speed="7.14" length="7.50" nVehEntered="2"/>
   <interval begin="1080.00" end="1110.00" id="0" nVehContrib="1" flow="120.00" occupancy="3.97" speed="6.30" length="7.50" nVehEntered="1"/>
   <interval begin="1080.00" end="1110.00" id="1" nVehContrib="1" flow="120.00" occupancy="3.33" speed="7.51" length="7.50" nVehEntered="1"/>
   <interval begin="1110.00" end="1140.00" id="0" nVehContrib="2" flow="240.00" occupancy="7.61" speed="6.65" length="7.50" nVehEntered="2"/>
   <interval begin="1110.00" end="1140.00" id="1" nVehContrib="2" flow="240.00" occupancy="6.57" speed="7.66" length="7.50" nVehEntered="2"/>
   <interval begin="1140.00" end="1170.00" id="0" nVehContrib="1" flow="120.00" occupancy="4.20" speed="5.95" length="7.50" nVehEntered="1"/>
   <interval begin="1140.00" end="1170.00" id="1" nVehContrib="1" flow="120.00" occupancy="7.06" speed="6.85" length="7.50" nVehEntered="1"/>
   <interval begin="1170.00" end="1200.00" id="0" nVehContrib="2" flow="240.00" occupancy="8.10" speed="6.22" length="7.50" nVehEntered="2"/>
   <interval begin="1170.00" end="1200.00" id="1" nVehContrib="2" flow="240.00" occupancy="4.12" speed="6.65" length="7.50" nVehEntered="2"/>
   <interval begin="1200.00" end="1230.00" id="0" nVehContrib="1" flow="120.00" occupancy="4.67" speed="5.36" length="7.50" nVehEntered="1"/>
   <interval begin="1200.00" end="1230.00" id="1" nVehContrib="1" flow="120.00" occupancy="3.26" speed="7.66" length="7.50" nVehEntered="1"/>
   <interval begin="1230.00" end="1260.00" id="0" nVehContrib="1" flow="120.00" occupancy="8.05" speed="6.83" length="7.50" nVehEntered="1"/>
   <interval begin="1230.00" end="1260.00" id="1" nVehContrib="2" flow="240.00" occupancy="7.12" speed="7.03" length="7.50" nVehEntered="2"/>
   <interval begin="1260.00" end="1290.00" id="0" nVehContrib="2" flow="240.00" occupancy="5.05" speed="5.30" length="7.50" nVehEntered="2"/>
   <interval begin="1260.00" end="1290.00" id="1" nVehContrib="1" flow="120.00" occupancy="3.45" speed="7.24" length="7.50" nVehEntered="1"/>
   <interval begin="1290.00" end="1320.00" id="0" nVehContrib="2" flow="240.00" occupancy="7.77" speed="6.52" length="7.50" nVehEntered="2"/>
   <interval begin="1290.00" end="1320.00" id="1" nVehContrib="2" flow="240.00" occupancy="6.73" speed="7.45" length="7.50" nVehEntered="2"/>
   <interval begin="1320.00" end="1350.00" id="0" nVehContrib="1" flow="120.00" occupancy="4.56" speed="5.48" length="7.50" nVehEntered="1"/>
   <interval begin="1320.00" end="1350.00" id="1" nVehContrib="1" flow="120.00" occupancy="5.81" speed="7.25" length="7.50" nVehEntered="1"/>
   <interval begin="1350.00" end="1380.00" id="0" nVehContrib="2" flow="240.00" occupancy="7.22" speed="7.02" length="7.50" nVehEntered="2"/>
   <interval begin="1350.00" end="1380.00" id="1" nVehContrib="2" flow="240.00" occupancy="4.80" speed="6.99" length="7.50" nVehEntered="2"/>
   <interval begin="1380.00" end="1410.00" id="0" nVehContrib="1" flow="120.00" occupancy="4.82" speed="5.19" length="7.50" nVehEntered="1"/>
   <interval begin="1380.00" end="1410.00" id="1" nVehContrib="1" flow="120.00" occupancy="3.07" speed="8.14" length="7.50" nVehEntered="1"/>
   <interval begin="1410.00" end="1440.00" id="0" nVehContrib="2" flow="240.00" occupancy="7.97" speed="6.42" length="7.50" nVehEntered="2"/>
   <interval begin="1410.00" end="1440.00" id="1" nVehContrib="2" flow="240.00" occupancy="6.37" speed="7.85" length="7.50" nVehEntered="2"/>
   <interval begin="1440.00" end="1470.00" id="0" nVehContrib="1" flow="120.00" occupancy="4.10" speed="6.09" length="7.50" nVehEntered="1"/>
   <interval begin="1440.00" end="1470.00" id="1" nVehContrib="2" flow="240.00" occupancy="6.57" speed="7.61" length="7.50" nVehEntered="2"/>
   <interval begin="1470.00" end="1500.00" id="0" nVehContrib="1" flow="120.00" occupancy="4.01" speed="6.23" length="7.50" nVehEntered="1"/>
   <interval begin="1470.00" end="1500.00" id="1" nVehContrib="1" flow="120.00" occupancy="4.08" speed="6.12" length="7.50" nVehEntered="1"/>
   <interval begin="1500.00" end="1530.00" id="0" nVehContrib="2" flow="240.00" occupancy="8.11" speed="6.17" length="7.50" nVehEntered="2"/>
   <interval begin="1500.00" end="1530.00" id="1" nVehContrib="1" flow="120.00" occupancy="3.38" speed="7.41" length="7.50" nVehEntered="1"/>
   <interval begin="1530.00" end="1560.00" id="0" nVehContrib="1" flow="120.00" occupancy="5.53" speed="6.68" length="7.50" nVehEntered="1"/>
   <interval begin="1530.00" end="1560.00" id="1" nVehContrib="2" flow="240.00" occupancy="7.12" speed="7.09" length="7.50" nVehEntered="2"/>
   <interval begin="1560.00" end="1590.00" id="0" nVehContrib="2" flow="240.00" occupancy="6.87" speed="5.87" length="7.50" nVehEntered="2"/>
   <interval begin="1560.00" end="1590.00" id="1" nVehContrib="1" flow="120.00" occupancy="3.50" speed="7.15" length="7.50" nVehEntered="1"/>
   <interval begin="1590.00" end="1620.00" id="0" nVehContrib="2" flow="240.00" occupancy="6.96" speed="7.30" length="7.50" nVehEntered="2"/>
   <interval begin="1590.00" end="1620.00" id="1" nVehContrib="2" flow="240.00" occupancy="7.13" speed="7.02" length="7.50" nVehEntered="2"/>
   <interval begin="1620.00" end="1650.00" id="0" nVehContrib="1" flow="120.00" occupancy="4.24" speed="5.89" length="7.50" nVehEntered="1"/>
   <interval begin="1620.00" end="1650.00" id="1" nVehContrib="1" flow="120.00" occupancy="5.29" speed="6.91" length="7.50" nVehEntered="1"/>
   <interval begin="1650.00" end="1680.00" id="0" nVehContrib="1" flow="120.00" occupancy="6.22" speed="7.16" length="7.50" nVehEntered="1"/>
   <interval begin="1650.00" end="1680.00" id="1" nVehContrib="2" flow="240.00" occupancy="5.06" speed="7.47" length="7.50" nVehEntered="2"/>
   <interval begin="1680.00" end="1710.00" id="0" nVehContrib="2" flow="240.00" occupancy="5.14" speed="6.37" length="7.50" nVehEntered="2"/>
   <interval begin="1680.00" end="1710.00" id="1" nVehContrib="1" flow="120.00" occupancy="4.49" speed="7.96" length="7.50" nVehEntered="1"/>
   <interval begin="1710.00" end="1740.00" id="0" nVehContrib="1" flow="120.00" occupancy="8.09" speed="6.30" length="7.50" nVehEntered="1"/>
   <interval begin="1710.00" end="1740.00" id="1" nVehContrib="2" flow="240.00" occupancy="5.79" speed="7.04" length="7.50" nVehEntered="2"/>
   <interval begin="1740.00" end="1770.00" id="0" nVehContrib="2" flow="240.00" occupancy="4.06" speed="6.12" length="7.50" nVehEntered="2"/>
   <interval begin="1740.00" end="1770.00" id="1" nVehContrib="1" flow="120.00" occupancy="3.08" speed="8.12" length="7.50" nVehEntered="1"/>
   <interval begin="1770.00" end="1800.00" id="0" nVehContrib="2" flow="240.00" occupancy="7.27" speed="7.01" length="7.50" nVehEntered="2"/>
   <interval begin="1770.00" end="1800.00" id="1" nVehContrib="2" flow="240.00" occupancy="6.54" speed="7.65" length="7.50" nVehEntered="2"/>
   <interval begin="1800.00" end="1830.00" id="0" nVehContrib="1" flow="120.00" occupancy="4.45" speed="5.62" length="7.50" nVehEntered="1"/>
   <interval begin="1800.00" end="1830.00" id="1" nVehContrib="1" flow="120.00" occupancy="4.30" speed="6.63" length="7.50" nVehEntered="1"/>
   <interval begin="1830.00" end="1860.00" id="0" nVehContrib="1" flow="120.00" occupancy="3.92" speed="6.37" length="7.50" nVehEntered="1"/>
   <interval begin="1830.00" end="1860.00" id="1" nVehContrib="2" flow="240.00" occupancy="6.46" speed="7.17" length="7.50" nVehEntered="2"/>
   <interval begin="1860.00" end="1890.00" id="0" nVehContrib="2" flow="240.00" occupancy="8.53" speed="5.87" length="7.50" nVehEntered="2"/>
   <interval begin="1860.00" end="1890.00" id="1" nVehContrib="1" flow="120.00" occupancy="4.48" speed="7.51" length="7.50" nVehEntered="1"/>
   <interval begin="1890.00" end="1920.00" id="0" nVehContrib="1" flow="120.00" occupancy="8.18" speed="7.43" length="7.50" nVehEntered="1"/>
   <interval begin="1890.00" end="1920.00" id="1" nVehContrib="2" flow="240.00" occupancy="5.45" speed="7.57" length="7.50" nVehEntered="2"/>
   <interval begin="1920.00" end="1950.00" id="0" nVehContrib="2" flow="240.00" occupancy="3.89" speed="5.84" length="7.50" nVehEntered="2"/>
   <interval begin="1920.00" end="1950.00" id="1" nVehContrib="1" flow="120.00" occupancy="6.03" speed="7.00" length="7.50" nVehEntered="1"/>
   <interval begin="1950.00" end="1980.00" id="0" nVehContrib="2" flow="240.00" occupancy="7.92" speed="6.33" length="7.50" nVehEntered="2"/>
   <interval begin="1950.00" end="1980.00" id="1" nVehContrib="2" flow="240.00" occupancy="3.92" speed="7.85" length="7.50" nVehEntered="2"/>
   <interval begin="1980.00" end="2010.00" id="0" nVehContrib="1" flow="120.00" occupancy="3.71" speed="6.75" length="7.50" nVehEntered="1"/>
   <interval begin="1980.00" end="2010.00" id="1" nVehContrib="1" flow="120.00" occupancy="4.22" speed="7.93" length="7.50" nVehEntered="1"/>
   <interval begin="2010.00" end="2040.00" id="0" nVehContrib="1" flow="120.00" occupancy="9.62" speed="4.60" length="7.50" nVehEntered="1"/>
   <interval begin="2010.00" end="2040.00" id="1" nVehContrib="2" flow="240.00" occupancy="6.12" speed="6.95" length="7.50" nVehEntered="2"/>
   <interval begin="2040.00" end="2070.00" id="0" nVehContrib="2" flow="240.00" occupancy="4.69" speed="5.63" length="7.50" nVehEntered="2"/>
   <interval begin="2040.00" end="2070.00" id="1" nVehContrib="1" flow="120.00" occupancy="4.81" speed="6.87" length="7.50" nVehEntered="1"/>
   <interval begin="2070.00" end="2100.00" id="0" nVehContrib="2" flow="240.00" occupancy="6.23" speed="8.04" length="7.50" nVehEntered="2"/>
   <interval begin="2070.00" end="2100.00" id="1" nVehContrib="2" flow="240.00" occupancy="5.63" speed="7.38" length="7.50" nVehEntered="2"/>
   <interval begin="2100.00" end="2130.00" id="0" nVehContrib="1" flow="120.00" occupancy="4.81" speed="5.19" length="7.50" nVehEntered="1"/>
   <interval begin="2100.00" end="2130.00" id="1" nVehContrib="1" flow="120.00" occupancy="4.61" speed="7.34" length="7.50" nVehEntered="1"/>
   <interval begin="2130.00" end="2160.00" id="0" nVehContrib="1" flow="120.00" occupancy="3.90" speed="6.41" length="7.50" nVehEntered="1"/>
   <interval begin="2130.00" end="2160.00" id="1" nVehContrib="2" flow="240.00" occupancy="5.69" speed="7.27" length="7.50" nVehEntered="2"/>
   <interval begin="2160.00" end="2190.00" id="0" nVehContrib="2" flow="240.00" occupancy="7.36" speed="6.82" length="7.50" nVehEntered="2"/>
   <interval begin="2160.00" end="2190.00" id="1" nVehContrib="1" flow="120.00" occupancy="4.40" speed="7.31" length="7.50" nVehEntered="1"/>
   <interval begin="2190.00" end="2220.00" id="0" nVehContrib="2" flow="240.00" occupancy="8.78" speed="5.70" length="7.50" nVehEntered="2"/>
   <interval begin="2190.00" end="2220.00" id="1" nVehContrib="2" flow="240.00" occupancy="6.18" speed="7.02" length="7.50" nVehEntered="2"/>
   <interval begin="2220.00" end="2250.00" id="0" nVehContrib="1" flow="120.00" occupancy="4.09" speed="6.11" length="7.50" nVehEntered="1"/>
   <interval begin="2220.00" end="2250.00" id="1" nVehContrib="1" flow="120.00" occupancy="3.36" speed="7.77" length="7.50" nVehEntered="1"/>
   <interval begin="2250.00" end="2280.00" id="0" nVehContrib="2" flow="240.00" occupancy="8.28" speed="6.04" length="7.50" nVehEntered="2"/>
   <interval begin="2250.00" end="2280.00" id="1" nVehContrib="2" flow="240.00" occupancy="6.18" speed="7.90" length="7.50" nVehEntered="2"/>
   <interval begin="2280.00" end="2310.00" id="0" nVehContrib="1" flow="120.00" occupancy="3.11" speed="8.04" length="7.50" nVehEntered="1"/>
   <interval begin="2280.00" end="2310.00" id="1" nVehContrib="2" flow="240.00" occupancy="6.33" speed="7.92" length="7.50" nVehEntered="2"/>
   <interval begin="2310.00" end="2340.00" id="0" nVehContrib="1" flow="120.00" occupancy="7.45" speed="5.75" length="7.50" nVehEntered="1"/>
   <interval begin="2310.00" end="2340.00" id="1" nVehContrib="1" flow="120.00" occupancy="3.09" speed="8.10" length="7.50" nVehEntered="1"/>
   <interval begin="2340.00" end="2370.00" id="0" nVehContrib="2" flow="240.00" occupancy="5.45" speed="5.95" length="7.50" nVehEntered="2"/>
   <interval begin="2340.00" end="2370.00" id="1" nVehContrib="1" flow="120.00" occupancy="4.15" speed="6.81" length="7.50" nVehEntered="1"/>
   <interval begin="2370.00" end="2400.00" id="0" nVehContrib="2" flow="240.00" occupancy="9.29" speed="5.39" length="7.50" nVehEntered="2"/>
   <interval begin="2370.00" end="2400.00" id="1" nVehContrib="2" flow="240.00" occupancy="6.73" speed="6.93" length="7.50" nVehEntered="2"/>
   <interval begin="2400.00" end="2430.00" id="0" nVehContrib="1" flow="120.00" occupancy="4.37" speed="5.72" length="7.50" nVehEntered="1"/>
   <interval begin="2400.00" end="2430.00" id="1" nVehContrib="1" flow="120.00" occupancy="4.38" speed="7.69" length="7.50" nVehEntered="1"/>
   <interval begin="2430.00" end="2460.00" id="0" nVehContrib="1" flow="120.00" occupancy="8.22" speed="5.64" length="7.50" nVehEntered="1"/>
   <interval begin="2430.00" end="2460.00" id="1" nVehContrib="2" flow="240.00" occupancy="6.16" speed="6.87" length="7.50" nVehEntered="2"/>
   <interval begin="2460.00" end="2490.00" id="0" nVehContrib="2" flow="240.00" occupancy="4.98" speed="5.73" length="7.50" nVehEntered="2"/>
   <interval begin="2460.00" end="2490.00" id="1" nVehContrib="1" flow="120.00" occupancy="4.44" speed="7.57" length="7.50" nVehEntered="1"/>
   <interval begin="2490.00" end="2520.00" id="0" nVehContrib="1" flow="120.00" occupancy="7.40" speed="8.34" length="7.50" nVehEntered="1"/>
   <interval begin="2490.00" end="2520.00" id="1" nVehContrib="2" flow="240.00" occupancy="5.99" speed="7.01" length="7.50" nVehEntered="2"/>
   <interval begin="2520.00" end="2550.00" id="0" nVehContrib="2" flow="240.00" occupancy="4.60" speed="5.55" length="7.50" nVehEntered="2"/>
   <interval begin="2520.00" end="2550.00" id="1" nVehContrib="1" flow="120.00" occupancy="4.14" speed="7.73" length="7.50" nVehEntered="1"/>
   <interval begin="2550.00" end="2580.00" id="0" nVehContrib="2" flow="240.00" occupancy="8.87" speed="5.64" length="7.50" nVehEntered="2"/>
   <interval begin="2550.00" end="2580.00" id="1" nVehContrib="2" flow="240.00" occupancy="6.18" speed="7.06" length="7.50" nVehEntered="2"/>
   <interval begin="2580.00" end="2610.00" id="0" nVehContrib="1" flow="120.00" occupancy="4.75" speed="5.26" length="7.50" nVehEntered="1"/>
   <interval begin="2580.00" end="2610.00" id="1" nVehContrib="1" flow="120.00" occupancy="5.82" speed="6.83" length="7.50" nVehEntered="1"/>
   <interval begin="2610.00" end="2640.00" id="0" nVehContrib="2" flow="240.00" occupancy="9.22" speed="5.43" length="7.50" nVehEntered="2"/>
   <interval begin="2610.00" end="2640.00" id="1" nVehContrib="2" flow="240.00" occupancy="5.06" speed="6.92" length="7.50" nVehEntered="2"/>
   <interval begin="2640.00" end="2670.00" id="0" nVehContrib="1" flow="120.00" occupancy="4.70" speed="5.32" length="7.50" nVehEntered="1"/>
   <interval begin="2640.00" end="2670.00" id="1" nVehContrib="1" flow="120.00" occupancy="5.15" speed="7.26" length="7.50" nVehEntered="1"/>
   <interval begin="2670.00" end="2700.00" id="0" nVehContrib="2" flow="240.00" occupancy="8.34" speed="6.00" length="7.50" nVehEntered="2"/>
   <interval begin="2670.00" end="2700.00" id="1" nVehContrib="2" flow="240.00" occupancy="5.02" speed="7.45" length="7.50" nVehEntered="2"/>
   <interval begin="2700.00" end="2730.00" id="0" nVehContrib="1" flow="120.00" occupancy="3.63" speed="6.89" length="7.50" nVehEntered="1"/>
   <interval begin="2700.00" end="2730.00" id="1" nVehContrib="1" flow="120.00" occupancy="4.06" speed="7.74" length="7.50" nVehEntered="1"/>
   <interval begin="2730.00" end="2760.00" id="0" nVehContrib="2" flow="240.00" occupancy="7.24" speed="7.03" length="7.50" nVehEntered="2"/>
   <interval begin="2730.00" end="2760.00" id="1" nVehContrib="2" flow="240.00" occupancy="6.21" speed="7.12" length="7.50" nVehEntered="2"/>
   <interval begin="2760.00" end="2790.00" id="0" nVehContrib="1" flow="120.00" occupancy="4.48" speed="5.58" length="7.50" nVehEntered="1"/>
   <interval begin="2760.00" end="2790.00" id="1" nVehContrib="1" flow="120.00" occupancy="4.93" speed="7.05" length="7.50" nVehEntered="1"/>
   <interval begin="2790.00" end="2820.00" id="0" nVehContrib="2" flow="240.00" occupancy="7.84" speed="6.57" length="7.50" nVehEntered="2"/>
   <interval begin="2790.00" end="2820.00" id="1" nVehContrib="2" flow="240.00" occupancy="5.54" speed="7.22" length="7.50" nVehEntered="2"/>
   <interval begin="2820.00" end="2850.00" id="0" nVehContrib="1" flow="120.00" occupancy="5.41" speed="4.62" length="7.50" nVehEntered="1"/>
   <interval begin="2820.00" end="2850.00" id="1" nVehContrib="1" flow="120.00" occupancy="6.33" speed="7.30" length="7.50" nVehEntered="1"/>
   <interval begin="2850.00" end="2880.00" id="0" nVehContrib="2" flow="240.00" occupancy="8.52" speed="5.93" length="7.50" nVehEntered="2"/>
   <interval begin="2850.00" end="2880.00" id="1" nVehContrib="2" flow="240.00" occupancy="3.45" speed="7.88" length="7.50" nVehEntered="2"/>
   <interval begin="2880.00" end="2910.00" id="0" nVehContrib="1" flow="120.00" occupancy="4.43" speed="5.65" length="7.50" nVehEntered="1"/>
   <interval begin="2880.00" end="2910.00" id="1" nVehContrib="1" flow="120.00" occupancy="4.90" speed="6.92" length="7.50" nVehEntered="1"/>
   <interval begin="2910.00" end="2940.00" id="0" nVehContrib="2" flow="240.00" occupancy="8.51" speed="5.96" length="7.50" nVehEntered="2"/>
   <interval begin="2910.00" end="2940.00" id="1" nVehContrib="2" flow="240.00" occupancy="5.50" speed="7.38" length="7.50" nVehEntered="2"/>
   <interval begin="2940.00" end="2970.00" id="0" nVehContrib="1" flow="120.00" occupancy="4.38" speed="5.71" length="7.50" nVehEntered="1"/>
   <interval begin="2940.00" end="2970.00" id="1" nVehContrib="1" flow="120.00" occupancy="5.26" speed="7.28" length="7.50" nVehEntered="1"/>
   <interval begin="2970.00" end="3000.00" id="0" nVehContrib="2" flow="240.00" occupancy="9.72" speed="5.14" length="7.50" nVehEntered="2"/>
   <interval begin="2970.00" end="3000.00" id="1" nVehContrib="2" flow="240.00" occupancy="5.57" speed="6.77" length="7.50" nVehEntered="2"/>
   <interval begin="3000.00" end="3030.00" id="0" nVehContrib="1" flow="120.00" occupancy="5.34" speed="4.68" length="7.50" nVehEntered="1"/>
   <interval begin="3000.00" end="3030.00" id="1" nVehContrib="1" flow="120.00" occupancy="5.15" speed="6.76" length="7.50" nVehEntered="1"/>
   <interval begin="3030.00" end="3060.00" id="0" nVehContrib="2" flow="240.00" occupancy="8.27" speed="6.19" length="7.50" nVehEntered="2"/>
   <interval begin="3030.00" end="3060.00" id="1" nVehContrib="2" flow="240.00" occupancy="5.58" speed="7.11" length="7.50" nVehEntered="2"/>
   <interval begin="3060.00" end="3090.00" id="0" nVehContrib="1" flow="120.00" occupancy="3.79" speed="6.60" length="7.50" nVehEntered="1"/>
   <interval begin="3060.00" end="3090.00" id="1" nVehContrib="1" flow="120.00" occupancy="4.24" speed="8.14" length="7.50" nVehEntered="1"/>
   <interval begin="3090.00" end="3120.00" id="0" nVehContrib="1" flow="120.00" occupancy="9.03" speed="4.86" length="7.50" nVehEntered="1"/>
   <interval begin="3090.00" end="3120.00" id="1" nVehContrib="2" flow="240.00" occupancy="5.64" speed="7.37" length="7.50" nVehEntered="2"/>